REMARK  Name = ligand.pdb
REMARK  6 active torsions:
REMARK  status: ('A' for Active; 'I' for Inactive)
REMARK    1  A    between atoms: O13_4  and  C10_15
REMARK    2  A    between atoms: O13_4  and  C14_18
REMARK    3  A    between atoms: N16_6  and  C15_19
REMARK    4  A    between atoms: C5_10  and  C6_11
REMARK    5  A    between atoms: C6_11  and  C7_12
REMARK    6  A    between atoms: C14_18  and  C15_19
REMARK                            x       y       z     vdW  Elec       q    Type
REMARK                         _______ _______ _______ _____ _____    ______ ____
ROOT
ATOM      1  C7  BRL A 601      14.814   5.539  42.331  0.00  0.00    -0.021 A 
ATOM      2  C8  BRL A 601      16.035   5.875  42.856  0.00  0.00    -0.001 A 
ATOM      3  C9  BRL A 601      16.254   5.726  44.200  0.00  0.00    +0.037 A 
ATOM      4  C10 BRL A 601      15.254   5.249  45.009  0.00  0.00    +0.139 A 
ATOM      5  C11 BRL A 601      14.040   4.909  44.487  0.00  0.00    +0.037 A 
ATOM      6  C12 BRL A 601      13.816   5.056  43.147  0.00  0.00    -0.001 A 
ENDROOT
BRANCH   4   7
ATOM      7  O13 BRL A 601      15.448   5.086  46.309  0.00  0.00    -0.474 OA
BRANCH   7   8
ATOM      8  C14 BRL A 601      16.380   5.967  46.767  0.00  0.00    +0.227 C 
BRANCH   8   9
ATOM      9  C15 BRL A 601      16.400   5.893  48.285  0.00  0.00    +0.140 C 
BRANCH   9  10
ATOM     10  N16 BRL A 601      15.373   6.731  48.881  0.00  0.00    -0.288 N 
ATOM     11  N18 BRL A 601      14.704   8.860  49.427  0.00  0.00    -0.229 NA
ATOM     12  C16 BRL A 601      14.113   6.216  49.413  0.00  0.00    +0.114 C 
ATOM     13  C17 BRL A 601      15.620   8.020  48.962  0.00  0.00    +0.132 A 
ATOM     14  C19 BRL A 601      14.917  10.140  49.522  0.00  0.00    +0.100 A 
ATOM     15  C20 BRL A 601      16.119  10.669  49.141  0.00  0.00    +0.021 A 
ATOM     16  C21 BRL A 601      17.096   9.836  48.659  0.00  0.00    +0.004 A 
ATOM     17  C22 BRL A 601      16.840   8.493  48.567  0.00  0.00    +0.034 A 
ENDBRANCH   9  10
ENDBRANCH   8   9
ENDBRANCH   7   8
ENDBRANCH   4   7
BRANCH   1  18
ATOM     18  C6  BRL A 601      14.535   5.705  40.845  0.00  0.00    +0.047 C 
BRANCH  18  25
ATOM     19  S1  BRL A 601      12.552   7.638  40.937  0.00  0.00    -0.046 S 
ATOM     20  O2  BRL A 601      10.884   8.268  39.120  0.00  0.00    -0.261 OA
ATOM     21  O4  BRL A 601      15.089   7.102  38.297  0.00  0.00    -0.272 OA
ATOM     22  N3  BRL A 601      12.962   7.685  38.509  0.00  0.00    -0.135 NA
ATOM     23  C2  BRL A 601      12.011   7.907  39.398  0.00  0.00    +0.299 C 
ATOM     24  C4  BRL A 601      14.132   7.317  39.012  0.00  0.00    +0.259 C 
ATOM     25  C5  BRL A 601      14.222   7.163  40.508  0.00  0.00    +0.139 C 
ENDBRANCH  18  25
ENDBRANCH   1  18
TORSDOF 6
